17
	Energy:       0.3304836
C          2.07732        0.06934        0.10322
C          0.74358        0.68181       -0.30029
C         -0.47148       -0.01538        0.33583
C         -1.75005        0.75222       -0.00856
C         -0.60711       -1.47184       -0.11060
H          2.90127        0.67008       -0.29545
H          2.18046        0.03402        1.19227
H          2.18945       -0.94512       -0.29007
H          0.74876        1.73722       -0.00046
H          0.65793        0.66569       -1.39375
H         -0.35441       -0.00063        1.42689
H         -1.92476        0.76915       -1.08980
H         -2.62150        0.29132        0.46853
H         -1.68866        1.78809        0.34158
H         -1.51268       -1.92352        0.30884
H         -0.66574       -1.54894       -1.20156
H          0.24141       -2.07329        0.22918
