14
	Energy:      -5.0759756
C         -0.24310        0.05967        0.01070
H         -0.33037        0.68621       -0.88271
H         -1.12588       -0.58541        0.06074
H         -0.24857        0.71178        0.88994
C          1.02214       -0.78203       -0.03554
H          0.98129       -1.44523       -0.90749
H          1.06263       -1.41980        0.85519
C          2.27311        0.09144       -0.10587
H          2.23262        0.72920       -0.99660
C          3.53835       -0.75027       -0.15211
H          2.31396        0.75463        0.76607
H          3.62562       -1.37681        0.74130
H          4.42112       -0.10519       -0.20216
H          3.54382       -1.40238       -1.03136
