20
	Energy:      10.2353174
C          0.46839        1.25347       -0.92503
C          0.42250       -0.00000       -0.03565
C          1.66614        0.00000        0.87459
C         -0.83803        0.00000        0.86719
C         -2.17635        0.00000        0.13833
C          0.46839       -1.25347       -0.92502
H          1.40782        1.30277       -1.48771
H         -0.34635        1.26237       -1.65638
H          0.39289        2.16681       -0.32455
H          1.68404        0.88530        1.52026
H          1.68404       -0.88529        1.52026
H          2.59038        0.00000        0.28563
H         -0.81076       -0.87759        1.52638
H         -0.81076        0.87759        1.52637
H         -2.29610        0.88861       -0.48751
H         -2.29610       -0.88861       -0.48751
H         -2.99380        0.00000        0.86725
H          1.40782       -1.30278       -1.48770
H          0.39289       -2.16681       -0.32453
H         -0.34635       -1.26238       -1.65637
