23
	Energy:      17.3940983
C          2.10421        0.03921        0.17098
C          0.76037        0.67069       -0.22278
C         -0.48905       -0.04829        0.40196
C         -1.78372        0.70265        0.02095
C         -0.62596       -1.50954       -0.06558
H          2.93539        0.61067       -0.25800
H          2.25057        0.03832        1.25449
H          2.19294       -0.98893       -0.19258
H          0.77338        1.69879        0.16632
C          0.71239        0.78531       -1.75389
C         -0.39355       -0.04270        1.94341
H         -1.99984        0.62724       -1.04952
H         -2.65128        0.28863        0.54828
H         -1.71510        1.76473        0.28117
H         -1.50548       -1.98304        0.38688
H         -0.74682       -1.57935       -1.15112
H          0.24364       -2.11036        0.21849
H          1.58630        1.33390       -2.12371
H         -0.16961        1.33560       -2.09254
H          0.71552       -0.19690       -2.23593
H          0.42538       -0.67309        2.30433
H         -1.31340       -0.42866        2.39843
H         -0.23680        0.97215        2.32547
