14
	Energy:      -4.2323691
C          0.11948       -0.23969        0.51449
H          0.00510        0.84853        0.54461
H         -0.88104       -0.68303        0.48081
H          0.59332       -0.56470        1.44498
C          0.91922       -0.66656       -0.70695
H          0.36169       -0.38601       -1.60851
H          1.00516       -1.75938       -0.71518
C          2.31392       -0.04343       -0.78030
H          2.78643       -0.35053       -1.72093
C          3.22331       -0.43607        0.37407
H          2.22614        1.04882       -0.81199
H          2.83673       -0.08381        1.33451
H          4.21589        0.00480        0.23567
H          3.34143       -1.52312        0.42480
