14
	Energy:      -1.1046420
C         -0.13263       -0.01098        0.29574
H         -0.38723        0.90757       -0.24364
H         -1.03252       -0.63178        0.34816
H          0.15689        0.25667        1.31662
C          0.98446       -0.76096       -0.41394
H          0.65661       -1.01228       -1.42915
H          1.15186       -1.71150        0.10686
C          2.27580        0.05946       -0.48526
H          2.50847        0.28098       -1.53332
C          3.45453       -0.67130        0.13966
H          2.15583        1.02476        0.02103
H          3.26056       -0.90907        1.19026
H          4.35456       -0.05045        0.09119
H          3.65958       -1.60531       -0.39411
