20
	Energy:       6.4008648
C          2.06290        0.05545        0.24733
C          0.74845        0.67686       -0.23718
C         -0.48448       -0.03864        0.37784
C         -1.78061        0.73166        0.10327
C         -0.64912       -1.49416       -0.06805
H          2.91566        0.66282       -0.07551
H          2.09053        0.00152        1.34061
H          2.20827       -0.95377       -0.15037
H          0.73836        1.71409        0.12486
C          0.74061        0.73101       -1.76737
H         -0.34764       -0.04608        1.46791
H         -2.05319        0.70735       -0.95642
H         -2.61230        0.29547        0.66750
H         -1.68603        1.77848        0.41008
H         -1.49899       -1.95677        0.44626
H         -0.83575       -1.57106       -1.14374
H          0.23609       -2.09031        0.17122
H          1.60343        1.29885       -2.13330
H         -0.15688        1.22742       -2.14730
H          0.79473       -0.26861       -2.20971
