14
	Energy:       0.1266620
C          0.23600       -0.53248        0.59365
H          0.35901        0.41862        1.12090
H         -0.83843       -0.72889        0.51442
H          0.67409       -1.33254        1.19744
C          0.85523       -0.47516       -0.79315
H          0.34651        0.30232       -1.37632
H          0.63148       -1.42012       -1.30463
C          2.36996       -0.23731       -0.86648
H          2.82384       -1.03191       -1.47143
C          3.11419       -0.14097        0.45518
H          2.54440        0.69226       -1.42335
H          2.73250        0.67670        1.07349
H          4.17649        0.05166        0.27172
H          3.04152       -1.07635        1.01863
