32
	Energy:       6.2216020
C         -0.50394        0.04886        0.02525
H         -0.57560        0.67908       -0.88678
H         -1.39950       -0.60561        0.07635
H         -0.49091        0.70443        0.92199
C          0.75592       -0.81079       -0.02169
H          0.70627       -1.47126       -0.91483
H          0.79079       -1.44597        0.89030
C          2.01673        0.05834       -0.09291
H          1.97334        0.69351       -1.00525
C          3.28028       -0.80895       -0.13992
H          2.05794        0.71883        0.80139
H          3.32333       -1.44414        0.77241
C          4.54177        0.05980       -0.21117
H          3.23873       -1.46946       -1.03416
H          4.49870        0.69499       -1.12348
C          5.80536       -0.80754       -0.25819
H          4.58330        0.72030        0.68307
H          5.76384       -1.46804       -1.15242
H          5.84845       -1.44273        0.65413
C          7.06683        0.06124       -0.32944
H          7.02375        0.69643       -1.24177
C          8.33041       -0.80600       -0.37648
H          7.10837        0.72174        0.56480
H          8.28923       -1.46648       -1.27078
H          8.37385       -1.44117        0.53586
C          9.59117        0.06321       -0.44772
H          9.55625        0.69839       -1.35970
C         10.85109       -0.79635       -0.49469
H          9.64081        0.72368        0.44543
H         10.83809       -1.45191       -1.39145
H         10.92282       -1.42658        0.41732
H         11.74661       -0.14183       -0.54581
