68
	Energy:      -8.7822835
C         13.25770       -0.36399       -0.00000
C         11.99605        0.48437        0.00000
C         10.73773       -0.38330       -0.00000
C          9.47089        0.47384        0.00000
C          8.21162       -0.39443       -0.00000
C          6.94477        0.46271        0.00000
C          5.68557       -0.40564       -0.00000
C          4.41867        0.45142        0.00000
C          3.15953       -0.41701       -0.00000
C          1.89259        0.43999        0.00000
C          0.63348       -0.42849       -0.00000
C         -0.63348        0.42849        0.00000
C         -1.89259       -0.43999       -0.00000
C         -3.15953        0.41701        0.00000
C         -4.41867       -0.45142       -0.00000
C         -5.68557        0.40564        0.00000
C         -6.94477       -0.46271       -0.00000
C         -8.21162        0.39443        0.00000
C         -9.47089       -0.47384       -0.00000
C        -10.73773        0.38330        0.00000
C        -11.99605       -0.48437       -0.00000
C        -13.25770        0.36399        0.00000
H         14.14517        0.27656        0.00000
H         13.30038       -1.00361        0.88736
H         13.30038       -1.00361       -0.88736
H         12.00011        1.13471        0.88247
H         12.00011        1.13471       -0.88247
H         10.74068       -1.03474       -0.88243
H         10.74068       -1.03474        0.88243
H          9.46803        1.12510        0.88253
H          9.46803        1.12510       -0.88253
H          8.21449       -1.04568       -0.88253
H          8.21449       -1.04568        0.88253
H          6.94187        1.11396        0.88253
H          6.94187        1.11396       -0.88253
H          5.68848       -1.05690       -0.88253
H          5.68848       -1.05690        0.88253
H          4.41574        1.10267        0.88253
H          4.41574        1.10267       -0.88253
H          3.16248       -1.06826       -0.88253
H          3.16248       -1.06826        0.88253
H          1.88963        1.09124        0.88253
H          1.88963        1.09124       -0.88253
H          0.63644       -1.07974       -0.88253
H          0.63644       -1.07974        0.88253
H         -0.63644        1.07974        0.88253
H         -0.63644        1.07974       -0.88253
H         -1.88963       -1.09124       -0.88253
H         -1.88963       -1.09124        0.88253
H         -3.16248        1.06826        0.88253
H         -3.16248        1.06826       -0.88253
H         -4.41574       -1.10267       -0.88253
H         -4.41574       -1.10267        0.88253
H         -5.68848        1.05690        0.88253
H         -5.68848        1.05690       -0.88253
H         -6.94187       -1.11396       -0.88253
H         -6.94187       -1.11396        0.88253
H         -8.21449        1.04568        0.88253
H         -8.21449        1.04568       -0.88253
H         -9.46803       -1.12510       -0.88253
H         -9.46803       -1.12510        0.88253
H        -10.74068        1.03474        0.88243
H        -10.74068        1.03474       -0.88243
H        -12.00011       -1.13471       -0.88247
H        -12.00011       -1.13471        0.88247
H        -14.14517       -0.27656       -0.00000
H        -13.30038        1.00361        0.88736
H        -13.30038        1.00361       -0.88736
