38
	Energy:      -6.7128887
C          6.94637       -0.31816       -0.00000
C          5.67567        0.51661        0.00000
C          4.42674       -0.36452        0.00000
C          3.15078        0.47899       -0.00000
C          1.90088       -0.40272       -0.00000
C          0.62494        0.44085        0.00000
C         -0.62494       -0.44085        0.00000
C         -1.90088        0.40272        0.00000
C         -3.15078       -0.47899       -0.00000
C         -4.42674        0.36452        0.00000
C         -5.67567       -0.51661        0.00000
C         -6.94637        0.31816       -0.00000
H          7.82690        0.33189        0.00000
H          6.99591       -0.95728        0.88736
H          6.99591       -0.95728       -0.88736
H          5.67275        1.16695        0.88247
H          5.67275        1.16695       -0.88247
H          4.43668       -1.01590       -0.88243
H          4.43668       -1.01590        0.88243
H          3.14095        1.13018        0.88253
H          3.14095        1.13018       -0.88253
H          1.91070       -1.05390       -0.88253
H          1.91070       -1.05390        0.88253
H          0.61511        1.09203        0.88253
H          0.61511        1.09203       -0.88253
H         -0.61511       -1.09203       -0.88253
H         -0.61511       -1.09203        0.88253
H         -1.91070        1.05390        0.88253
H         -1.91070        1.05390       -0.88253
H         -3.14095       -1.13018       -0.88253
H         -3.14095       -1.13018        0.88253
H         -4.43668        1.01590        0.88243
H         -4.43668        1.01590       -0.88243
H         -5.67275       -1.16695       -0.88247
H         -5.67275       -1.16695        0.88247
H         -7.82690       -0.33189        0.00000
H         -6.99591        0.95728        0.88736
H         -6.99591        0.95728       -0.88736
