62
	Energy:      -8.3683830
C         11.99502       -0.35829        0.00000
C         10.73255        0.48886        0.00000
C          9.47507       -0.38002       -0.00000
C          8.20741        0.47590       -0.00000
C          6.94897       -0.39359        0.00000
C          5.68129        0.46234        0.00000
C          4.42293       -0.40722       -0.00000
C          3.15521        0.44864        0.00000
C          1.89690       -0.42098        0.00000
C          0.62915        0.43482       -0.00000
C         -0.62915       -0.43482        0.00000
C         -1.89690        0.42098       -0.00000
C         -3.15521       -0.44864       -0.00000
C         -4.42293        0.40722        0.00000
C         -5.68129       -0.46234        0.00000
C         -6.94897        0.39359        0.00000
C         -8.20741       -0.47590       -0.00000
C         -9.47507        0.38002       -0.00000
C        -10.73255       -0.48886       -0.00000
C        -11.99502        0.35829        0.00000
H         12.03831       -0.99787        0.88736
H         12.03831       -0.99787       -0.88736
H         12.88188        0.28311        0.00000
H         10.73599        1.13920        0.88247
H         10.73599        1.13920       -0.88247
H          9.47865       -1.03146       -0.88243
H          9.47865       -1.03146        0.88243
H          8.20392        1.12715        0.88253
H          8.20392        1.12715       -0.88253
H          6.95246       -1.04484       -0.88253
H          6.95246       -1.04484        0.88253
H          5.67778        1.11358        0.88253
H          5.67778        1.11358       -0.88253
H          4.42646       -1.05847       -0.88253
H          4.42646       -1.05847        0.88253
H          3.15167        1.09988        0.88253
H          3.15167        1.09988       -0.88253
H          1.90046       -1.07223       -0.88253
H          1.90046       -1.07223        0.88253
H          0.62558        1.08607        0.88253
H          0.62558        1.08607       -0.88253
H         -0.62558       -1.08607       -0.88253
H         -0.62558       -1.08607        0.88253
H         -1.90046        1.07223        0.88253
H         -1.90046        1.07223       -0.88253
H         -3.15167       -1.09988       -0.88253
H         -3.15167       -1.09988        0.88253
H         -4.42646        1.05847        0.88253
H         -4.42646        1.05847       -0.88253
H         -5.67778       -1.11358       -0.88253
H         -5.67778       -1.11358        0.88253
H         -6.95246        1.04484        0.88253
H         -6.95246        1.04484       -0.88253
H         -8.20392       -1.12715       -0.88253
H         -8.20392       -1.12715        0.88253
H         -9.47865        1.03146        0.88243
H         -9.47865        1.03146       -0.88243
H        -10.73599       -1.13920       -0.88247
H        -10.73599       -1.13920        0.88247
H        -12.03831        0.99787       -0.88736
H        -12.88188       -0.28311        0.00000
H        -12.03831        0.99787        0.88736
