8
	Energy:      -1.5195581
C          0.00009       -0.00218       -0.09069
H          1.02321       -0.03982       -0.47716
H         -0.53522       -0.88229       -0.46011
H         -0.48653        0.88871       -0.49931
C         -0.00150        0.03081        1.42298
H          1.02073        0.00773        1.81293
H         -0.54151       -0.82960        1.82985
H         -0.48491        0.94117        1.79067
