302
	Energy:     -24.9244981
C         62.51223       -0.41488       -0.00000
C         61.25459        0.43944        0.00000
C         59.99220       -0.42228       -0.00000
C         58.72943        0.44084        0.00000
C         57.46608       -0.42146       -0.00000
C         56.20331        0.44169        0.00000
C         54.94002       -0.42068       -0.00000
C         53.67722        0.44241        0.00000
C         52.41400       -0.42004       -0.00000
C         51.15114        0.44295        0.00000
C         49.88799       -0.41960       -0.00000
C         48.62506        0.44329        0.00000
C         47.36199       -0.41938       -0.00000
C         46.09899        0.44339        0.00000
C         44.83600       -0.41940       -0.00000
C         43.57292        0.44324        0.00000
C         42.31002       -0.41967       -0.00000
C         41.04687        0.44287        0.00000
C         39.78405       -0.42015       -0.00000
C         38.52083        0.44229        0.00000
C         37.25807       -0.42081       -0.00000
C         35.99481        0.44156        0.00000
C         34.73209       -0.42160       -0.00000
C         33.46880        0.44072        0.00000
C         32.20611       -0.42248       -0.00000
C         30.94281        0.43982        0.00000
C         29.68013       -0.42340       -0.00000
C         28.41683        0.43890        0.00000
C         27.15415       -0.42431       -0.00000
C         25.89086        0.43801        0.00000
C         24.62817       -0.42518       -0.00000
C         23.36490        0.43716        0.00000
C         22.10220       -0.42601       -0.00000
C         20.83895        0.43637        0.00000
C         19.57622       -0.42677       -0.00000
C         18.31300        0.43564        0.00000
C         17.05026       -0.42747       -0.00000
C         15.78705        0.43496        0.00000
C         14.52429       -0.42812       -0.00000
C         13.26111        0.43433        0.00000
C         11.99834       -0.42873       -0.00000
C         10.73516        0.43374        0.00000
C          9.47239       -0.42931       -0.00000
C          8.20922        0.43317        0.00000
C          6.94644       -0.42987       -0.00000
C          5.68328        0.43262        0.00000
C          4.42049       -0.43042       -0.00000
C          3.15733        0.43207        0.00000
C          1.89455       -0.43097       -0.00000
C          0.63139        0.43152        0.00000
C         -0.63139       -0.43152        0.00000
C         -1.89455        0.43097       -0.00000
C         -3.15733       -0.43207        0.00000
C         -4.42049        0.43042       -0.00000
C         -5.68328       -0.43262        0.00000
C         -6.94644        0.42987       -0.00000
C         -8.20922       -0.43317        0.00000
C         -9.47239        0.42931       -0.00000
C        -10.73516       -0.43374        0.00000
C        -11.99834        0.42873       -0.00000
C        -13.26111       -0.43433        0.00000
C        -14.52429        0.42812       -0.00000
C        -15.78705       -0.43496        0.00000
C        -17.05026        0.42747       -0.00000
C        -18.31300       -0.43564        0.00000
C        -19.57622        0.42677       -0.00000
C        -20.83895       -0.43637        0.00000
C        -22.10220        0.42601       -0.00000
C        -23.36490       -0.43716        0.00000
C        -24.62817        0.42518       -0.00000
C        -25.89086       -0.43801        0.00000
C        -27.15415        0.42431       -0.00000
C        -28.41683       -0.43890        0.00000
C        -29.68013        0.42340       -0.00000
C        -30.94281       -0.43982        0.00000
C        -32.20611        0.42248       -0.00000
C        -33.46880       -0.44072        0.00000
C        -34.73209        0.42160       -0.00000
C        -35.99481       -0.44156        0.00000
C        -37.25807        0.42081       -0.00000
C        -38.52083       -0.44229        0.00000
C        -39.78405        0.42015       -0.00000
C        -41.04687       -0.44287        0.00000
C        -42.31002        0.41967       -0.00000
C        -43.57292       -0.44324        0.00000
C        -44.83600        0.41940       -0.00000
C        -46.09899       -0.44339        0.00000
C        -47.36199        0.41938       -0.00000
C        -48.62506       -0.44329        0.00000
C        -49.88799        0.41960       -0.00000
C        -51.15114       -0.44295        0.00000
C        -52.41400        0.42004       -0.00000
C        -53.67722       -0.44240        0.00000
C        -54.94002        0.42068       -0.00000
C        -56.20331       -0.44169        0.00000
C        -57.46608        0.42146       -0.00000
C        -58.72943       -0.44084        0.00000
C        -59.99220        0.42228       -0.00000
C        -61.25459       -0.43944        0.00000
C        -62.51223        0.41487       -0.00000
H         62.55188       -1.05469        0.88736
H         62.55188       -1.05468       -0.88736
H         63.40271        0.22148        0.00000
H         61.26172        1.08975        0.88247
H         61.26172        1.08975       -0.88247
H         59.99207       -1.07373       -0.88243
H         59.99207       -1.07373        0.88243
H         58.72965        1.09210        0.88254
H         58.72965        1.09211       -0.88253
H         57.46585       -1.07272       -0.88253
H         57.46585       -1.07272        0.88253
H         56.20351        1.09294        0.88253
H         56.20351        1.09294       -0.88253
H         54.93983       -1.07193       -0.88253
H         54.93983       -1.07194        0.88253
H         53.67738        1.09366        0.88253
H         53.67738        1.09366       -0.88253
H         52.41385       -1.07130       -0.88253
H         52.41385       -1.07130        0.88253
H         51.15125        1.09420        0.88253
H         51.15125        1.09421       -0.88253
H         49.88790       -1.07085       -0.88253
H         49.88790       -1.07086        0.88253
H         48.62512        1.09454        0.88254
H         48.62511        1.09454       -0.88253
H         47.36196       -1.07064       -0.88253
H         47.36196       -1.07064        0.88253
H         46.09898        1.09464        0.88254
H         46.09898        1.09464       -0.88253
H         44.83604       -1.07066       -0.88253
H         44.83604       -1.07066        0.88253
H         43.57285        1.09449        0.88253
H         43.57285        1.09450       -0.88253
H         42.31012       -1.07093       -0.88253
H         42.31012       -1.07093        0.88253
H         41.04675        1.09412        0.88253
H         41.04675        1.09412       -0.88253
H         39.78419       -1.07141       -0.88253
H         39.78419       -1.07141        0.88253
H         38.52066        1.09354        0.88253
H         38.52066        1.09355       -0.88253
H         37.25826       -1.07207       -0.88253
H         37.25826       -1.07207        0.88253
H         35.99460        1.09281        0.88253
H         35.99460        1.09282       -0.88253
H         34.73231       -1.07286       -0.88253
H         34.73231       -1.07286        0.88253
H         33.46857        1.09197        0.88253
H         33.46857        1.09198       -0.88253
H         32.20634       -1.07374       -0.88253
H         32.20634       -1.07374        0.88253
H         30.94257        1.09107        0.88253
H         30.94257        1.09108       -0.88253
H         29.68037       -1.07465       -0.88253
H         29.68037       -1.07465        0.88253
H         28.41659        1.09016        0.88253
H         28.41659        1.09016       -0.88253
H         27.15438       -1.07556       -0.88253
H         27.15438       -1.07556        0.88253
H         25.89063        1.08926        0.88253
H         25.89063        1.08926       -0.88253
H         24.62839       -1.07644       -0.88253
H         24.62839       -1.07644        0.88253
H         23.36469        1.08841        0.88253
H         23.36469        1.08841       -0.88253
H         22.10240       -1.07726       -0.88253
H         22.10240       -1.07726        0.88253
H         20.83875        1.08762        0.88253
H         20.83875        1.08762       -0.88253
H         19.57641       -1.07802       -0.88253
H         19.57641       -1.07802        0.88253
H         18.31282        1.08689        0.88253
H         18.31282        1.08689       -0.88253
H         17.05043       -1.07872       -0.88253
H         17.05043       -1.07873        0.88253
H         15.78688        1.08622        0.88253
H         15.78688        1.08622       -0.88253
H         14.52446       -1.07937       -0.88253
H         14.52446       -1.07938        0.88253
H         13.26095        1.08559        0.88253
H         13.26095        1.08559       -0.88253
H         11.99849       -1.07998       -0.88253
H         11.99849       -1.07998        0.88253
H         10.73501        1.08500        0.88253
H         10.73501        1.08500       -0.88253
H          9.47253       -1.08056       -0.88253
H          9.47253       -1.08056        0.88253
H          8.20908        1.08443        0.88253
H          8.20908        1.08443       -0.88253
H          6.94658       -1.08113       -0.88253
H          6.94658       -1.08113        0.88253
H          5.68313        1.08387        0.88253
H          5.68313        1.08387       -0.88253
H          4.42064       -1.08168       -0.88253
H          4.42064       -1.08168        0.88253
H          3.15719        1.08332        0.88253
H          3.15719        1.08332       -0.88253
H          1.89469       -1.08223       -0.88253
H          1.89469       -1.08223        0.88253
H          0.63125        1.08277        0.88253
H          0.63125        1.08277       -0.88253
H         -0.63125       -1.08277       -0.88253
H         -0.63125       -1.08277        0.88253
H         -1.89469        1.08223        0.88253
H         -1.89469        1.08223       -0.88253
H         -3.15719       -1.08332       -0.88253
H         -3.15719       -1.08332        0.88253
H         -4.42064        1.08168        0.88253
H         -4.42064        1.08168       -0.88253
H         -5.68313       -1.08387       -0.88253
H         -5.68313       -1.08387        0.88253
H         -6.94658        1.08113        0.88253
H         -6.94658        1.08113       -0.88253
H         -8.20908       -1.08443       -0.88253
H         -8.20908       -1.08443        0.88253
H         -9.47253        1.08056        0.88253
H         -9.47253        1.08056       -0.88253
H        -10.73501       -1.08500       -0.88253
H        -10.73501       -1.08500        0.88253
H        -11.99849        1.07998        0.88253
H        -11.99849        1.07998       -0.88253
H        -13.26095       -1.08559       -0.88253
H        -13.26095       -1.08559        0.88253
H        -14.52446        1.07938        0.88253
H        -14.52446        1.07937       -0.88253
H        -15.78688       -1.08622       -0.88253
H        -15.78688       -1.08622        0.88253
H        -17.05043        1.07873        0.88253
H        -17.05043        1.07872       -0.88253
H        -18.31282       -1.08689       -0.88253
H        -18.31282       -1.08689        0.88253
H        -19.57641        1.07802        0.88253
H        -19.57641        1.07802       -0.88253
H        -20.83875       -1.08762       -0.88253
H        -20.83875       -1.08762        0.88253
H        -22.10240        1.07726        0.88253
H        -22.10240        1.07726       -0.88253
H        -23.36469       -1.08841       -0.88253
H        -23.36469       -1.08841        0.88253
H        -24.62839        1.07644        0.88253
H        -24.62839        1.07644       -0.88253
H        -25.89063       -1.08926       -0.88253
H        -25.89063       -1.08926        0.88253
H        -27.15438        1.07556        0.88253
H        -27.15438        1.07556       -0.88253
H        -28.41659       -1.09016       -0.88253
H        -28.41659       -1.09016        0.88253
H        -29.68037        1.07465        0.88253
H        -29.68037        1.07465       -0.88253
H        -30.94257       -1.09108       -0.88253
H        -30.94257       -1.09107        0.88253
H        -32.20634        1.07374        0.88253
H        -32.20634        1.07374       -0.88253
H        -33.46857       -1.09198       -0.88253
H        -33.46857       -1.09197        0.88253
H        -34.73231        1.07286        0.88253
H        -34.73231        1.07286       -0.88253
H        -35.99460       -1.09282       -0.88253
H        -35.99460       -1.09281        0.88253
H        -37.25826        1.07207        0.88253
H        -37.25826        1.07207       -0.88253
H        -38.52066       -1.09355       -0.88253
H        -38.52066       -1.09355        0.88253
H        -39.78419        1.07141        0.88253
H        -39.78419        1.07141       -0.88253
H        -41.04675       -1.09412       -0.88253
H        -41.04675       -1.09412        0.88253
H        -42.31012        1.07093        0.88253
H        -42.31012        1.07092       -0.88253
H        -43.57285       -1.09450       -0.88253
H        -43.57285       -1.09449        0.88253
H        -44.83604        1.07066        0.88253
H        -44.83604        1.07066       -0.88253
H        -46.09898       -1.09464       -0.88253
H        -46.09898       -1.09464        0.88254
H        -47.36196        1.07064        0.88253
H        -47.36196        1.07064       -0.88253
H        -48.62511       -1.09454       -0.88253
H        -48.62511       -1.09454        0.88254
H        -49.88790        1.07086        0.88253
H        -49.88790        1.07085       -0.88253
H        -51.15125       -1.09421       -0.88253
H        -51.15125       -1.09420        0.88253
H        -52.41385        1.07130        0.88253
H        -52.41385        1.07130       -0.88253
H        -53.67738       -1.09366       -0.88253
H        -53.67738       -1.09366        0.88253
H        -54.93983        1.07194        0.88253
H        -54.93983        1.07194       -0.88253
H        -56.20351       -1.09294       -0.88253
H        -56.20351       -1.09294        0.88253
H        -57.46585        1.07272        0.88253
H        -57.46585        1.07272       -0.88253
H        -58.72965       -1.09211       -0.88253
H        -58.72965       -1.09210        0.88254
H        -59.99207        1.07373        0.88243
H        -59.99207        1.07373       -0.88243
H        -61.26172       -1.08975       -0.88247
H        -61.26172       -1.08975        0.88247
H        -63.40271       -0.22148        0.00000
H        -62.55188        1.05469        0.88736
H        -62.55188        1.05468       -0.88736
