23
	Energy:       4.0153956
C         -0.40249        0.06243        0.01980
H         -0.46956        0.69362       -0.89190
H         -1.30254       -0.58590        0.07028
H         -0.38524        0.71741        0.91690
C          0.85146       -0.80582       -0.02725
H          0.79753       -1.46544       -0.92077
H          0.88169       -1.44172        0.88440
C          2.11824        0.05468       -0.09762
H          2.07946        0.69065       -1.00962
C          3.37585       -0.82124       -0.14477
H          2.16371        0.71438        0.79706
H          3.41430       -1.45723        0.76721
C          4.64330        0.03879       -0.21517
H          3.33004       -1.48094       -1.03940
H          4.60516        0.67478       -1.12718
C          5.90023       -0.83759       -0.26233
H          4.68944        0.69846        0.67949
H          5.86262       -1.49728       -1.15663
H          5.94684       -1.47363        0.64853
C          7.16393        0.01482       -0.33246
H          7.15393        0.64570       -1.24678
H          8.05656       -0.64480       -0.36547
H          7.23833        0.66939        0.56203
