23
	Energy:       1.2943199
C         -0.37569       -0.05593        0.13639
H         -0.66570        0.53584       -0.73633
H         -1.18817       -0.76170        0.33796
H         -0.28739        0.61296        0.99815
C          0.92291       -0.81335       -0.10420
H          0.81711       -1.43120       -1.00438
H          1.06855       -1.50375        0.73608
C          2.16308        0.09676       -0.22968
C          2.06195        1.01941       -1.44819
C          3.43024       -0.78470       -0.28587
H          3.41176       -1.48361        0.56051
C          4.73761        0.00977       -0.22718
H          3.41588       -1.39619       -1.19723
H          4.84558        0.63656       -1.11827
C          5.94359       -0.91400       -0.14026
H          4.73153        0.67467        0.64403
H          5.99347       -1.57635       -1.01041
H          5.90020       -1.53302        0.76155
H          6.86757       -0.32833       -0.10528
H          2.00786        0.44223       -2.37729
H          2.92318        1.69062       -1.51448
H          1.17579        1.65860       -1.39323
H          2.22070        0.72334        0.66995
