50
	Energy:      -7.5405963
C          9.47010       -0.34288       -0.00000
C          8.20498        0.50031       -0.00000
C          6.95022       -0.37250       -0.00000
C          5.67990        0.47946        0.00000
C          4.42416       -0.39392        0.00000
C          3.15385        0.45809        0.00000
C          1.89816       -0.41531        0.00000
C          0.62785        0.43670       -0.00000
C         -0.62785       -0.43670        0.00000
C         -1.89816        0.41531        0.00000
C         -3.15385       -0.45809        0.00000
C         -4.42416        0.39392       -0.00000
C         -5.67990       -0.47946        0.00000
C         -6.95022        0.37250        0.00000
C         -8.20498       -0.50031       -0.00000
C         -9.47010        0.34288       -0.00000
H          9.51540       -0.98232        0.88736
H          9.51540       -0.98232       -0.88736
H         10.35494        0.30130        0.00000
H          8.20638        1.15066        0.88247
H          8.20638        1.15066       -0.88247
H          6.95583       -1.02393       -0.88243
H          6.95583       -1.02393        0.88243
H          5.67438        1.13070        0.88253
H          5.67438        1.13070       -0.88253
H          4.42967       -1.04515       -0.88253
H          4.42967       -1.04515        0.88253
H          3.14834        1.10933        0.88253
H          3.14834        1.10933       -0.88253
H          1.90367       -1.06654       -0.88253
H          1.90367       -1.06654        0.88253
H          0.62233        1.08793        0.88253
H          0.62233        1.08793       -0.88253
H         -0.62233       -1.08793       -0.88253
H         -0.62233       -1.08793        0.88253
H         -1.90367        1.06654        0.88253
H         -1.90367        1.06654       -0.88253
H         -3.14834       -1.10933       -0.88253
H         -3.14834       -1.10933        0.88253
H         -4.42967        1.04515        0.88253
H         -4.42967        1.04515       -0.88253
H         -5.67438       -1.13070       -0.88253
H         -5.67438       -1.13070        0.88253
H         -6.95583        1.02393        0.88243
H         -6.95583        1.02393       -0.88243
H         -8.20638       -1.15066       -0.88247
H         -8.20638       -1.15066        0.88247
H         -9.51540        0.98232        0.88736
H         -9.51540        0.98232       -0.88736
H        -10.35494       -0.30130        0.00000
