23
	Energy:      -0.0255887
C         -0.33651        0.11146       -0.08355
H         -0.30655        0.74113       -0.97909
H         -1.26258       -0.47219       -0.11881
H         -0.38265        0.76824        0.79189
C          0.88521       -0.80893       -0.02397
H          0.87320       -1.44085       -0.92106
C          0.78683       -1.71724        1.20249
C          2.17411        0.03381       -0.03071
H          2.14297        0.71891       -0.88786
C          3.45197       -0.80577       -0.12110
H          2.21303        0.65996        0.86986
H          3.55525       -1.43179        0.77208
C          4.68994        0.08315       -0.25101
H          3.39061       -1.47747       -0.98576
H          4.60753        0.70873       -1.14741
C          5.96306       -0.74365       -0.33650
H          4.75597        0.75749        0.61075
H          5.94215       -1.40717       -1.20692
H          6.09345       -1.35723        0.56064
H          6.83489       -0.08854       -0.42956
H          1.57768       -2.47326        1.20334
H         -0.16981       -2.25084        1.21454
H          0.86344       -1.14090        2.13065
