80
	Energy:      -9.6100867
C         15.78325       -0.37323        0.00000
C         14.52278        0.47691       -0.00000
C         13.26326       -0.38900        0.00000
C         11.99761        0.46990       -0.00000
C         10.73714       -0.39663        0.00000
C          9.47146        0.46225       -0.00000
C          8.21110       -0.40440        0.00000
C          6.94533        0.45435       -0.00000
C          5.68507       -0.41244        0.00000
C          4.41921        0.44617       -0.00000
C          3.15903       -0.42075        0.00000
C          1.89311        0.43776       -0.00000
C          0.63297       -0.42923        0.00000
C         -0.63297        0.42923       -0.00000
C         -1.89311       -0.43776        0.00000
C         -3.15903        0.42075       -0.00000
C         -4.41921       -0.44617        0.00000
C         -5.68507        0.41244       -0.00000
C         -6.94533       -0.45435        0.00000
C         -8.21110        0.40440       -0.00000
C         -9.47146       -0.46225        0.00000
C        -10.73714        0.39663       -0.00000
C        -11.99761       -0.46990        0.00000
C        -13.26326        0.38900       -0.00000
C        -14.52278       -0.47691        0.00000
C        -15.78325        0.37323       -0.00000
H         15.82503       -1.01290        0.88736
H         15.82503       -1.01290       -0.88736
H         16.67162        0.26608        0.00000
H         14.52775        1.12723        0.88247
H         14.52775        1.12723       -0.88247
H         13.26530       -1.04046       -0.88243
H         13.26530       -1.04046        0.88243
H         11.99565        1.12116        0.88253
H         11.99565        1.12116       -0.88253
H         10.73911       -1.04788       -0.88253
H         10.73911       -1.04788        0.88253
H          9.46946        1.11350        0.88253
H          9.46946        1.11350       -0.88253
H          8.21313       -1.05566       -0.88253
H          8.21313       -1.05566        0.88253
H          6.94326        1.10560        0.88253
H          6.94326        1.10560       -0.88253
H          5.68717       -1.06370       -0.88253
H          5.68717       -1.06370        0.88253
H          4.41707        1.09742        0.88253
H          4.41707        1.09742       -0.88253
H          3.16120       -1.07200       -0.88253
H          3.16120       -1.07200        0.88253
H          1.89092        1.08901        0.88253
H          1.89092        1.08901       -0.88253
H          0.63517       -1.08048       -0.88253
H          0.63517       -1.08048        0.88253
H         -0.63517        1.08048        0.88253
H         -0.63517        1.08048       -0.88253
H         -1.89092       -1.08901       -0.88253
H         -1.89092       -1.08901        0.88253
H         -3.16120        1.07200        0.88253
H         -3.16120        1.07200       -0.88253
H         -4.41707       -1.09742       -0.88253
H         -4.41707       -1.09742        0.88253
H         -5.68717        1.06370        0.88253
H         -5.68717        1.06370       -0.88253
H         -6.94326       -1.10560       -0.88253
H         -6.94326       -1.10560        0.88253
H         -8.21313        1.05566        0.88253
H         -8.21313        1.05566       -0.88253
H         -9.46946       -1.11350       -0.88253
H         -9.46946       -1.11350        0.88253
H        -10.73911        1.04788        0.88253
H        -10.73911        1.04788       -0.88253
H        -11.99565       -1.12116       -0.88253
H        -11.99565       -1.12116        0.88253
H        -13.26530        1.04046        0.88243
H        -13.26530        1.04046       -0.88243
H        -14.52775       -1.12723       -0.88247
H        -14.52775       -1.12723        0.88247
H        -15.82503        1.01290        0.88736
H        -15.82503        1.01290       -0.88736
H        -16.67162       -0.26608       -0.00000
