20
	Energy:       3.2765866
C         -0.37034        0.05961        0.01786
H         -0.44020        0.69010       -0.89411
H         -1.26752       -0.59265        0.06865
H         -0.35596        0.71506        0.91468
C          0.88742       -0.80313       -0.02881
H          0.83638       -1.46339       -0.92202
H          0.92045       -1.43848        0.88313
C          2.15043        0.06289       -0.09958
H          2.10890        0.69826       -1.01189
C          3.41184       -0.80745       -0.14630
H          2.19304        0.72321        0.79479
H          3.45337       -1.44281        0.76602
C          4.67485        0.05858       -0.21709
H          3.36923       -1.46777       -1.04067
H          4.64183        0.69390       -1.12904
C          5.93261       -0.80417       -0.26373
H          4.72589        0.71886        0.67612
H          5.91823       -1.45964       -1.16053
H          6.00246       -1.43463        0.64827
H          6.82979       -0.15191       -0.31453
