23
	Energy:       1.2943199
C         -0.40020       -0.03526       -0.13962
H         -0.39033        0.61454       -1.02024
H         -1.22654       -0.74475       -0.25212
H         -0.61165        0.57566        0.74243
C          0.91573       -0.78807        0.00017
H          0.98642       -1.49680       -0.83448
H          0.89180       -1.38598        0.91951
C          2.16096        0.12377       -0.00590
H          2.13695        0.73043       -0.92058
C          3.42921       -0.75707       -0.04413
C          2.16815        1.07298        1.19626
H          3.49734       -1.34841        0.87803
C          4.72503        0.03506       -0.23709
H          3.33592       -1.47437       -0.86994
H          4.64008        0.68068       -1.11862
C          5.91959       -0.89118       -0.41139
H          4.91154        0.68119        0.62679
H          5.79643       -1.52983       -1.29189
H          6.04807       -1.53430        0.46511
H          6.83596       -0.30702       -0.54182
H          3.03098        1.74493        1.17044
H          2.19823        0.51637        2.13890
H          1.27979        1.71140        1.20690
