29
	Energy:       5.4869853
C         -0.45381        0.06501        0.02258
H         -0.52084        0.69610       -0.88920
H         -1.35398       -0.58313        0.07322
H         -0.43635        0.72011        0.91960
C          0.79996       -0.80348       -0.02447
H          0.74582       -1.46322       -0.91789
H          0.83016       -1.43927        0.88726
C          2.06689        0.05676       -0.09507
H          2.02816        0.69261       -1.00715
C          3.32430       -0.81941       -0.14223
H          2.11259        0.71656        0.79951
H          3.36269       -1.45528        0.76984
C          4.59192        0.04042       -0.21290
H          3.27823       -1.47923       -1.03675
H          4.55347        0.67629       -1.12495
C          5.84937       -0.83581       -0.26011
H          4.63797        0.70024        0.68162
H          5.80334       -1.49564       -1.15463
H          5.88786       -1.47167        0.65196
C          7.11695        0.02395       -0.33083
H          7.07880        0.65979       -1.24295
C          8.37368       -0.85270       -0.37801
H          7.16334        0.68376        0.56371
H          8.33580       -1.51255       -1.27218
H          8.42029       -1.48858        0.53297
C          9.63755       -0.00057       -0.44848
H          9.62755        0.63013       -1.36293
H         10.53003       -0.66038       -0.48149
H          9.71221        0.65416        0.44586
