56
	Energy:      -7.9544856
C         10.73245       -0.35148       -0.00000
C          9.46891        0.49407        0.00000
C          8.21253       -0.37641       -0.00000
C          6.94378        0.47790       -0.00000
C          5.68646       -0.39320       -0.00000
C          4.41768        0.46109       -0.00000
C          3.16044       -0.41008       -0.00000
C          1.89162        0.44414       -0.00000
C          0.63442       -0.42710        0.00000
C         -0.63442        0.42710       -0.00000
C         -1.89162       -0.44414        0.00000
C         -3.16044        0.41008       -0.00000
C         -4.41768       -0.46109        0.00000
C         -5.68646        0.39320       -0.00000
C         -6.94378       -0.47790        0.00000
C         -8.21253        0.37641       -0.00000
C         -9.46891       -0.49407        0.00000
C        -10.73245        0.35148       -0.00000
H         10.77656       -0.99100        0.88736
H         10.77656       -0.99100       -0.88736
H         11.61849        0.29105        0.00000
H          9.47151        1.14441        0.88247
H          9.47151        1.14441       -0.88247
H          8.21694       -1.02785       -0.88243
H          8.21694       -1.02785        0.88243
H          6.93946        1.12914        0.88253
H          6.93946        1.12914       -0.88253
H          5.69078       -1.04444       -0.88253
H          5.69078       -1.04444        0.88253
H          4.41333        1.11233        0.88253
H          4.41333        1.11233       -0.88253
H          3.16481       -1.06133       -0.88253
H          3.16481       -1.06133        0.88253
H          1.88724        1.09538        0.88253
H          1.88724        1.09538       -0.88253
H          0.63881       -1.07834       -0.88253
H          0.63881       -1.07834        0.88253
H         -0.63881        1.07834        0.88253
H         -0.63881        1.07834       -0.88253
H         -1.88724       -1.09538       -0.88253
H         -1.88724       -1.09538        0.88253
H         -3.16481        1.06133        0.88253
H         -3.16481        1.06133       -0.88253
H         -4.41333       -1.11233       -0.88253
H         -4.41333       -1.11233        0.88253
H         -5.69078        1.04444        0.88253
H         -5.69078        1.04444       -0.88253
H         -6.93946       -1.12914       -0.88253
H         -6.93946       -1.12914        0.88253
H         -8.21694        1.02785        0.88243
H         -8.21694        1.02785       -0.88243
H         -9.47151       -1.14441       -0.88247
H         -9.47151       -1.14441        0.88247
H        -10.77656        0.99100        0.88736
H        -10.77656        0.99100       -0.88736
H        -11.61849       -0.29105       -0.00000
