26
	Energy:       4.7517848
C         -0.42830        0.05944        0.02113
H         -0.49742        0.68999       -0.89086
H         -1.32636       -0.59162        0.07204
H         -0.41294        0.71490        0.91793
C          0.82829       -0.80499       -0.02565
H          0.77627       -1.46521       -0.91884
H          0.86058       -1.44035        0.88630
C          2.09241        0.05935       -0.09661
H          2.05158        0.69473       -1.00893
C          3.35267       -0.81273       -0.14346
H          2.13597        0.71963        0.79773
H          3.39316       -1.44812        0.76885
C          4.61750        0.05122       -0.21448
H          3.30874       -1.47304       -1.03773
H          4.57700        0.68660       -1.12680
C          5.87778       -0.82083       -0.26134
H          4.66143        0.71154        0.67978
H          5.83421       -1.48115       -1.15565
H          5.91866       -1.45618        0.65100
C          7.14186        0.04356       -0.33238
H          7.10950        0.67886       -1.24437
C          8.39850       -0.82081       -0.37918
H          7.19389        0.70383        0.56077
H          8.38313       -1.47632       -1.27593
H          8.46769       -1.45130        0.53285
H          9.29651       -0.16971       -0.43017
