86
	Energy:     -10.0239891
C         17.04611       -0.37700        0.00000
C         15.78606        0.47376       -0.00000
C         14.52610       -0.39151        0.00000
C         13.26089        0.46803       -0.00000
C         11.99999       -0.39787        0.00000
C         10.73473        0.46164       -0.00000
C          9.47394       -0.40439        0.00000
C          8.20859        0.45498       -0.00000
C          6.94791       -0.41121        0.00000
C          5.68246        0.44800       -0.00000
C          4.42188       -0.41834        0.00000
C          3.15634        0.44072       -0.00000
C          1.89583       -0.42573        0.00000
C          0.63024        0.43325       -0.00000
C         -0.63024       -0.43325        0.00000
C         -1.89583        0.42573       -0.00000
C         -3.15634       -0.44072        0.00000
C         -4.42188        0.41834       -0.00000
C         -5.68246       -0.44800        0.00000
C         -6.94791        0.41121       -0.00000
C         -8.20859       -0.45498        0.00000
C         -9.47394        0.40439       -0.00000
C        -10.73473       -0.46164        0.00000
C        -11.99999        0.39787       -0.00000
C        -13.26089       -0.46803        0.00000
C        -14.52610        0.39151       -0.00000
C        -15.78606       -0.47376        0.00000
C        -17.04611        0.37700       -0.00000
H         17.93479        0.26186       -0.00000
H         17.08757       -1.01670        0.88736
H         17.08757       -1.01670       -0.88736
H         15.79136        1.12409        0.88247
H         15.79136        1.12409       -0.88247
H         14.52782       -1.04297       -0.88243
H         14.52782       -1.04297        0.88243
H         13.25926        1.11928        0.88253
H         13.25926        1.11928       -0.88253
H         12.00163       -1.04913       -0.88253
H         12.00163       -1.04913        0.88253
H         10.73305        1.11288        0.88253
H         10.73305        1.11288       -0.88253
H          9.47565       -1.05565       -0.88253
H          9.47565       -1.05565        0.88253
H          8.20684        1.10622        0.88253
H          8.20684        1.10622       -0.88253
H          6.94971       -1.06246       -0.88253
H          6.94971       -1.06246        0.88253
H          5.68062        1.09925        0.88253
H          5.68062        1.09925       -0.88253
H          4.42375       -1.06960       -0.88253
H          4.42375       -1.06960        0.88253
H          3.15443        1.09197        0.88253
H          3.15443        1.09197       -0.88253
H          1.89776       -1.07699       -0.88253
H          1.89776       -1.07699        0.88253
H          0.62830        1.08450        0.88253
H          0.62830        1.08450       -0.88253
H         -0.62830       -1.08450       -0.88253
H         -0.62830       -1.08450        0.88253
H         -1.89776        1.07699        0.88253
H         -1.89776        1.07699       -0.88253
H         -3.15443       -1.09197       -0.88253
H         -3.15443       -1.09197        0.88253
H         -4.42375        1.06960        0.88253
H         -4.42375        1.06960       -0.88253
H         -5.68062       -1.09925       -0.88253
H         -5.68062       -1.09925        0.88253
H         -6.94971        1.06246        0.88253
H         -6.94971        1.06246       -0.88253
H         -8.20684       -1.10622       -0.88253
H         -8.20684       -1.10622        0.88253
H         -9.47565        1.05565        0.88253
H         -9.47565        1.05565       -0.88253
H        -10.73305       -1.11288       -0.88253
H        -10.73305       -1.11288        0.88253
H        -12.00163        1.04913        0.88253
H        -12.00163        1.04913       -0.88253
H        -13.25926       -1.11928       -0.88253
H        -13.25926       -1.11928        0.88253
H        -14.52782        1.04297        0.88243
H        -14.52782        1.04297       -0.88243
H        -15.79136       -1.12409       -0.88247
H        -15.79136       -1.12409        0.88247
H        -17.08757        1.01670        0.88736
H        -17.08757        1.01670       -0.88736
H        -17.93479       -0.26186        0.00000
