23
	Energy:      12.5598064
C         -0.10931       -0.01093       -0.06211
C         -1.50512        0.02734       -0.67377
C          1.08750       -0.04496       -1.05990
H         -1.65660        0.92030       -1.28593
H         -1.70592       -0.85676       -1.28459
H         -2.25540        0.04877        0.12406
C          2.38706       -0.08029       -0.20026
C          1.00333       -1.29668       -1.95240
C          1.07280        1.20799       -1.95451
C          3.70688       -0.11750       -0.96220
H          2.35693       -0.95691        0.46033
H          2.40558        0.79774        0.45889
H          3.78986       -1.00951       -1.58869
H          4.54058       -0.14005       -0.25203
H          3.83914        0.76755       -1.59010
H          1.84093       -1.34987       -2.65539
H          0.09166       -1.30128       -2.55858
H          1.01127       -2.21147       -1.34975
H          1.91203        1.21349       -2.65754
H          1.13145        2.12195       -1.35340
H          0.16277        1.26208       -2.56075
H         -0.00640        0.86473        0.59239
H         -0.05512       -0.88992        0.59379
