20
	Energy:       1.4229006
H          2.89007       -0.23365        1.84328
C          2.42182       -0.09339        0.86352
H          2.85582        0.80686        0.41948
H          2.68348       -0.95230        0.23772
C          0.91258        0.02940        1.02155
H          0.56635       -0.82802        1.61223
H          0.68467        0.92803        1.60789
C          0.14531        0.06205       -0.31687
C          0.51462        1.29469       -1.14780
H          0.41995       -0.83211       -0.89167
C         -1.36980        0.00435       -0.03002
H         -1.57830       -0.85156        0.62411
H         -1.68365        0.90204        0.51671
C         -2.22790       -0.14442       -1.27878
H         -2.18864        0.75150       -1.90469
H         -1.90669       -1.00268       -1.87715
H         -3.27421       -0.30131       -0.99684
H          1.58438        1.31697       -1.37589
H          0.26040        2.21886       -0.61806
H         -0.00737        1.29950       -2.10927
