152
	Energy:     -14.5769316
C         30.93835       -0.40089       -0.00000
C         29.68032        0.45285        0.00000
C         28.41832       -0.40945       -0.00000
C         27.15514        0.45307        0.00000
C         25.89221       -0.40987       -0.00000
C         24.62899        0.45261        0.00000
C         23.36618       -0.41046       -0.00000
C         22.10284        0.45185        0.00000
C         20.84017       -0.41142       -0.00000
C         19.57670        0.45068        0.00000
C         18.31418       -0.41282       -0.00000
C         17.05056        0.44906        0.00000
C         15.78819       -0.41466       -0.00000
C         14.52443        0.44701        0.00000
C         13.26219       -0.41689       -0.00000
C         11.99832        0.44462        0.00000
C         10.73617       -0.41942       -0.00000
C          9.47223        0.44198        0.00000
C          8.21014       -0.42214       -0.00000
C          6.94616        0.43920        0.00000
C          5.68410       -0.42496       -0.00000
C          4.42010        0.43636        0.00000
C          3.15805       -0.42781       -0.00000
C          1.89405        0.43351        0.00000
C          0.63200       -0.43066       -0.00000
C         -0.63200        0.43066        0.00000
C         -1.89405       -0.43351       -0.00000
C         -3.15805        0.42781        0.00000
C         -4.42010       -0.43636       -0.00000
C         -5.68410        0.42496        0.00000
C         -6.94616       -0.43920       -0.00000
C         -8.21014        0.42214        0.00000
C         -9.47223       -0.44198       -0.00000
C        -10.73617        0.41942        0.00000
C        -11.99832       -0.44462       -0.00000
C        -13.26219        0.41689        0.00000
C        -14.52443       -0.44701       -0.00000
C        -15.78819        0.41466        0.00000
C        -17.05056       -0.44906       -0.00000
C        -18.31418        0.41282        0.00000
C        -19.57670       -0.45068       -0.00000
C        -20.84017        0.41142        0.00000
C        -22.10284       -0.45185       -0.00000
C        -23.36618        0.41046        0.00000
C        -24.62899       -0.45261       -0.00000
C        -25.89221        0.40987        0.00000
C        -27.15514       -0.45307       -0.00000
C        -28.41832        0.40945        0.00000
C        -29.68032       -0.45285       -0.00000
C        -30.93835        0.40089        0.00000
H         30.97830       -1.04068        0.88736
H         30.97830       -1.04068       -0.88736
H         31.82854        0.23587        0.00000
H         29.68715        1.10316        0.88247
H         29.68715        1.10316       -0.88247
H         28.41850       -1.06091       -0.88243
H         28.41850       -1.06091        0.88243
H         27.15504        1.10432        0.88253
H         27.15504        1.10432       -0.88253
H         25.89232       -1.06113       -0.88253
H         25.89232       -1.06113        0.88253
H         24.62883        1.10386        0.88253
H         24.62883        1.10386       -0.88253
H         23.36637       -1.06172       -0.88253
H         23.36637       -1.06172        0.88253
H         22.10259        1.10310        0.88253
H         22.10259        1.10310       -0.88253
H         20.84047       -1.06268       -0.88253
H         20.84047       -1.06268        0.88253
H         19.57634        1.10193        0.88254
H         19.57634        1.10193       -0.88254
H         18.31460       -1.06408       -0.88253
H         18.31460       -1.06408        0.88253
H         17.05008        1.10030        0.88253
H         17.05008        1.10030       -0.88253
H         15.78872       -1.06592       -0.88253
H         15.78872       -1.06592        0.88253
H         14.52385        1.09826        0.88253
H         14.52385        1.09826       -0.88253
H         13.26280       -1.06815       -0.88253
H         13.26280       -1.06815        0.88253
H         11.99767        1.09587        0.88253
H         11.99767        1.09587       -0.88253
H         10.73685       -1.07068       -0.88253
H         10.73685       -1.07068        0.88253
H          9.47153        1.09323        0.88253
H          9.47153        1.09323       -0.88253
H          8.21086       -1.07340       -0.88253
H          8.21086       -1.07340        0.88253
H          6.94543        1.09045        0.88253
H          6.94543        1.09045       -0.88253
H          5.68483       -1.07622       -0.88253
H          5.68483       -1.07622        0.88253
H          4.41937        1.08761        0.88253
H          4.41937        1.08761       -0.88253
H          3.15878       -1.07906       -0.88253
H          3.15878       -1.07906        0.88253
H          1.89332        1.08476        0.88253
H          1.89332        1.08476       -0.88253
H          0.63273       -1.08191       -0.88253
H          0.63273       -1.08191        0.88253
H         -0.63273        1.08191        0.88253
H         -0.63273        1.08191       -0.88253
H         -1.89332       -1.08476       -0.88253
H         -1.89332       -1.08476        0.88253
H         -3.15878        1.07906        0.88253
H         -3.15878        1.07906       -0.88253
H         -4.41937       -1.08761       -0.88253
H         -4.41937       -1.08761        0.88253
H         -5.68483        1.07622        0.88253
H         -5.68483        1.07622       -0.88253
H         -6.94543       -1.09045       -0.88253
H         -6.94543       -1.09045        0.88253
H         -8.21086        1.07340        0.88253
H         -8.21086        1.07340       -0.88253
H         -9.47153       -1.09323       -0.88253
H         -9.47153       -1.09323        0.88253
H        -10.73685        1.07068        0.88253
H        -10.73685        1.07068       -0.88253
H        -11.99767       -1.09587       -0.88253
H        -11.99767       -1.09587        0.88253
H        -13.26280        1.06815        0.88253
H        -13.26280        1.06815       -0.88253
H        -14.52385       -1.09826       -0.88253
H        -14.52385       -1.09826        0.88253
H        -15.78872        1.06592        0.88253
H        -15.78872        1.06592       -0.88253
H        -17.05008       -1.10030       -0.88253
H        -17.05008       -1.10030        0.88253
H        -18.31460        1.06408        0.88253
H        -18.31460        1.06408       -0.88253
H        -19.57634       -1.10193       -0.88254
H        -19.57634       -1.10193        0.88254
H        -20.84047        1.06268        0.88253
H        -20.84047        1.06268       -0.88253
H        -22.10259       -1.10310       -0.88253
H        -22.10259       -1.10310        0.88253
H        -23.36637        1.06172        0.88253
H        -23.36637        1.06172       -0.88253
H        -24.62883       -1.10386       -0.88253
H        -24.62883       -1.10386        0.88253
H        -25.89232        1.06113        0.88253
H        -25.89232        1.06113       -0.88253
H        -27.15504       -1.10432       -0.88253
H        -27.15504       -1.10432        0.88253
H        -28.41850        1.06091        0.88243
H        -28.41850        1.06091       -0.88243
H        -29.68715       -1.10316       -0.88247
H        -29.68715       -1.10316        0.88247
H        -30.97830        1.04068        0.88736
H        -30.97830        1.04068       -0.88736
H        -31.82854       -0.23587       -0.00000
