23
	Energy:       5.4379977
C         -0.10760       -0.02221        0.03104
C         -0.19451       -1.25270        0.93438
C         -1.38229        0.09029       -0.81097
C          1.12450       -0.05630       -0.89554
H         -1.11706       -1.23654        1.52483
H         -0.18576       -2.17739        0.34755
H          0.63997       -1.28830        1.64103
H         -1.35604        0.98719       -1.43887
H         -1.50521       -0.77932       -1.46560
H         -2.26747        0.15920       -0.16968
C          2.49495       -0.13649       -0.19325
H          1.03042       -0.91420       -1.57526
H          1.10677        0.83883       -1.53214
C          3.60895       -0.19546       -1.24300
H          2.54897       -1.06324        0.38976
C          2.73871        1.04175        0.75016
H          3.47298       -1.05581       -1.90685
H          4.58920       -0.29605       -0.76495
H          3.62394        0.71011       -1.85911
H          2.63560        1.99788        0.22605
H          3.74749        0.99686        1.17484
H          2.03544        1.03364        1.58821
H         -0.05819        0.87008        0.66591
