23
	Energy:       8.3914429
C         -0.16789       -0.02647        0.03654
C         -0.20774       -1.24523        0.96863
C         -1.49877        0.03858       -0.72559
C          1.06594       -0.04806       -0.92184
H         -1.13357       -1.26079        1.55443
H         -0.15226       -2.17986        0.40059
H          0.61522       -1.22759        1.68897
H         -1.61687        0.99228       -1.24804
H         -1.57457       -0.77088       -1.45930
H         -2.34829       -0.04766       -0.03897
C          2.39424       -0.13491       -0.13164
C          1.06699        1.17091       -1.85721
C          3.64565       -0.17512       -1.00021
H          2.40206       -1.04891        0.47154
H          2.46990        0.70847        0.56535
H          3.56713       -0.94978       -1.76926
H          4.52151       -0.39923       -0.38227
H          3.83103        0.78675       -1.48663
H         -0.10449        0.87014        0.66737
H          1.91031        1.14426       -2.55345
H          1.12305        2.10427       -1.28736
H          0.16901        1.20234       -2.48071
H          0.99257       -0.94525       -1.55161
