23
	Energy:       2.3902881
H          2.88968       -0.27885        1.85835
C          2.42117       -0.11600        0.88224
H          2.81777        0.82110        0.48124
H          2.72304       -0.93460        0.22151
C          0.90760       -0.06456        1.03403
H          0.59565       -0.96003        1.58677
H          0.63667        0.79250        1.66147
C          0.14169       -0.01784       -0.30713
C          0.54108        1.17515       -1.20238
H          0.40749       -0.92854       -0.86233
C         -1.37434       -0.08961       -0.01735
H         -1.57559       -0.98386        0.58640
H         -1.69075        0.76696        0.58914
C         -2.24130       -0.16718       -1.26594
H         -2.21113        0.76591       -1.83576
H         -1.92039       -0.98557       -1.91790
H         -3.28459       -0.34662       -0.98637
H          1.60920        1.11249       -1.44089
C          0.25481        2.54953       -0.61381
H          0.02961        1.09515       -2.16867
H          0.57034        3.32729       -1.31717
H          0.80048        2.70960        0.32029
H         -0.81251        2.69190       -0.42288
