17
	Energy:      -5.2717556
H          2.95708        0.05032        1.73111
C          2.41467        0.03924        0.78054
H          2.70439        0.92977        0.21368
H          2.73238       -0.84472        0.21839
C          0.91512        0.01625        1.03026
H          0.66343       -0.86871        1.62626
H          0.63559        0.89600        1.62155
C          0.12917        0.00035       -0.28055
H          0.38770        0.88526       -0.87488
H          0.41550       -0.87917       -0.87014
C         -1.37760       -0.02270       -0.02504
H         -1.64183       -0.90784        0.56524
H         -1.66963        0.85687        0.56044
C         -2.16325       -0.03861       -1.32659
H         -1.94599        0.85065       -1.92689
H         -1.91806       -0.92385       -1.92206
H         -3.23801       -0.05497       -1.12038
