23
	Energy:       7.4134673
C         -0.13203       -0.06023       -0.00581
C         -0.31248       -1.28032        0.90165
C         -1.43630        0.21428       -0.76310
C          1.08711       -0.16200       -0.96921
H         -1.14657       -1.12071        1.59414
H         -0.53233       -2.18520        0.32647
H          0.57907       -1.46593        1.50736
H         -1.32801        1.07634       -1.42941
H         -1.75191       -0.64574       -1.36155
H         -2.24596        0.43965       -0.06016
C          2.41497       -0.13456       -0.17912
C          1.02173       -1.37940       -1.89979
H          1.06791        0.73439       -1.60465
C          3.64212        0.06866       -1.05871
H          2.54283       -1.06257        0.38969
H          2.38447        0.68454        0.54983
H          3.81125       -0.78678       -1.71878
H          4.53438        0.18396       -0.43470
H          3.54135        0.96862       -1.67335
H          1.80663       -1.33308       -2.66132
H          0.06993       -1.42662       -2.43623
H          1.15055       -2.31590       -1.34794
H          0.03706        0.80811        0.64565
