20
	Energy:       0.1848417
C         -1.39083        1.41368       -0.17597
C         -1.05519        0.01100        0.33276
C         -2.16549       -0.96302       -0.06941
C          0.30025       -0.49695       -0.19273
C          1.49112        0.33659        0.28646
C          2.81103       -0.27690       -0.15639
H         -1.37455        1.45363       -1.27034
H         -2.38834        1.71929        0.15810
H         -0.68217        2.15575        0.20369
H         -1.01795        0.04315        1.42904
H         -2.25504       -1.03614       -1.15868
H         -1.96499       -1.96570        0.32277
H         -3.13231       -0.63772        0.32925
H          0.44138       -1.53377        0.13921
H          0.28879       -0.51827       -1.29004
H          1.42958        1.35470       -0.11200
H          1.47875        0.41063        1.37989
H          2.93348       -1.28417        0.25440
H          2.86684       -0.34114       -1.24777
H          3.64894        0.33537        0.19146
