23
	Energy:      10.1090098
C         -0.15624        1.25063        0.95079
C         -0.16634        0.00582        0.04828
C         -0.25135       -1.25456        0.92486
C         -1.41915        0.06266       -0.84805
C          1.08386       -0.03213       -0.87072
H          0.66222        1.21925        1.67725
H         -0.04788        2.16649        0.35925
H         -1.08945        1.33159        1.52015
H         -1.18845       -1.27629        1.49315
H         -0.21226       -2.16357        0.31444
H          0.56657       -1.30034        1.65118
H         -1.41049        0.95491       -1.48426
H         -1.47765       -0.81435       -1.50258
H         -2.33633        0.09128       -0.24884
C          2.43668       -0.09092       -0.15274
H          1.00737       -0.90057       -1.53913
H          1.07395        0.85324       -1.52098
C          3.58726       -0.12428       -1.14922
H          2.49760       -0.98360        0.47795
H          2.56461        0.78136        0.49621
H          3.51906       -1.00321       -1.79821
H          4.54479       -0.16611       -0.62064
H          3.58639        0.77050       -1.77986
