14
	Energy:      -0.4775101
C         -0.30854        1.41637       -0.11120
C          0.00000        0.00001        0.36910
C         -1.07234       -0.97538       -0.11120
C          1.38088       -0.44097       -0.11120
H         -0.32077        1.47255       -1.20507
H         -1.28600        1.74683        0.25578
H          0.44291        2.12345        0.25578
H          0.00000        0.00001        1.46598
H         -1.11487       -1.01406       -1.20507
H         -0.86979       -1.98711        0.25579
H         -2.06041       -0.67814        0.25579
H          2.15579        0.24031        0.25578
H          1.61750       -1.44529        0.25579
H          1.43565       -0.45847       -1.20507
