11
	Energy:      -1.4879183
C         -0.13119        0.03892        0.04188
H          0.06470        1.07291       -0.25878
H         -0.84437       -0.39422       -0.66699
H         -0.61877        0.06151        1.02221
C          1.13617       -0.80228        0.10209
H          1.04515       -1.64992       -0.58687
H          1.25288       -1.22113        1.10801
C          2.37723       -0.00195       -0.25596
H          2.30090        0.40945       -1.26751
H          3.26529       -0.64042       -0.21504
H          2.52292        0.82734        0.44380
