17
	Energy:       5.1593049
C          0.05037        1.24720        0.90212
C          0.00000        0.00001        0.00000
C         -0.04504       -1.26580        0.87611
C         -1.25923        0.05697       -0.88485
C          1.25390       -0.03835       -0.89338
H          0.95310        1.22632        1.55031
H          0.08343        2.17376        0.28900
H         -0.84695        1.29459        1.55642
H         -0.94387       -1.25854        1.52999
H         -0.08183       -2.17933        0.24395
H          0.85618       -1.32681        1.52388
H         -1.24708        0.96452       -1.52650
H         -1.31541       -0.83544       -1.54513
H         -2.17745        0.08535       -0.25909
H          2.17585       -0.07976       -0.27386
H          1.23785       -0.93228       -1.55380
H          1.30618        0.86768       -1.53517
