44
	Energy:      -7.1267222
C          8.20798       -0.33220        0.00000
C          6.94068        0.50771        0.00000
C          5.68819       -0.36835       -0.00000
C          4.41566        0.48031        0.00000
C          3.16221       -0.39634       -0.00000
C          1.88968        0.45235        0.00000
C          0.63627       -0.42434       -0.00000
C         -0.63627        0.42434        0.00000
C         -1.88968       -0.45235       -0.00000
C         -3.16221        0.39634        0.00000
C         -4.41566       -0.48031        0.00000
C         -5.68819        0.36835       -0.00000
C         -6.94068       -0.50771       -0.00000
C         -8.20798        0.33220        0.00000
H          8.25493       -0.97152        0.88736
H          8.25493       -0.97152       -0.88736
H          9.09115        0.31427        0.00000
H          6.94040        1.15806        0.88247
H          6.94040        1.15806       -0.88247
H          5.69549       -1.01976       -0.88243
H          5.69549       -1.01976        0.88243
H          4.40845        1.13153        0.88253
H          4.40845        1.13153       -0.88253
H          3.16941       -1.04756       -0.88253
H          3.16941       -1.04756        0.88253
H          1.88246        1.10356        0.88253
H          1.88246        1.10356       -0.88253
H          0.64349       -1.07555       -0.88253
H          0.64349       -1.07555        0.88253
H         -0.64349        1.07555        0.88253
H         -0.64349        1.07555       -0.88253
H         -1.88246       -1.10356       -0.88253
H         -1.88246       -1.10356        0.88253
H         -3.16941        1.04756        0.88253
H         -3.16941        1.04756       -0.88253
H         -4.40845       -1.13153       -0.88253
H         -4.40845       -1.13153        0.88253
H         -5.69549        1.01976        0.88243
H         -5.69549        1.01976       -0.88243
H         -6.94040       -1.15806       -0.88247
H         -6.94040       -1.15806        0.88247
H         -9.09115       -0.31427        0.00000
H         -8.25493        0.97152        0.88736
H         -8.25493        0.97152       -0.88736
