122
	Energy:     -12.5074025
C         24.62362       -0.39359       -0.00000
C         23.36514        0.45949        0.00000
C         22.10359       -0.40346       -0.00000
C         20.83996        0.45841        0.00000
C         19.57747       -0.40518       -0.00000
C         18.31379        0.45664        0.00000
C         17.05143       -0.40709       -0.00000
C         15.78763        0.45456        0.00000
C         14.52541       -0.40938       -0.00000
C         13.26146        0.45203        0.00000
C         11.99941       -0.41216       -0.00000
C         10.73529        0.44899        0.00000
C          9.47342       -0.41546       -0.00000
C          8.20912        0.44544        0.00000
C          6.94741       -0.41925       -0.00000
C          5.68297        0.44143        0.00000
C          4.42139       -0.42345       -0.00000
C          3.15684        0.43708        0.00000
C          1.89534       -0.42792       -0.00000
C          0.63074        0.43252        0.00000
C         -0.63074       -0.43252       -0.00000
C         -1.89534        0.42792        0.00000
C         -3.15684       -0.43708       -0.00000
C         -4.42139        0.42345        0.00000
C         -5.68297       -0.44143       -0.00000
C         -6.94741        0.41925        0.00000
C         -8.20912       -0.44544       -0.00000
C         -9.47342        0.41546        0.00000
C        -10.73529       -0.44899       -0.00000
C        -11.99941        0.41216        0.00000
C        -13.26146       -0.45203       -0.00000
C        -14.52541        0.40938        0.00000
C        -15.78763       -0.45456       -0.00000
C        -17.05143        0.40709        0.00000
C        -18.31379       -0.45664       -0.00000
C        -19.57747        0.40518        0.00000
C        -20.83996       -0.45841       -0.00000
C        -22.10359        0.40346        0.00000
C        -23.36514       -0.45949       -0.00000
C        -24.62362        0.39359        0.00000
H         24.66390       -1.03337        0.88736
H         24.66390       -1.03336       -0.88736
H         25.51348        0.24363        0.00000
H         23.37164        1.10981        0.88247
H         23.37164        1.10981       -0.88247
H         22.10410       -1.05492       -0.88243
H         22.10410       -1.05492        0.88243
H         20.83952        1.10966        0.88254
H         20.83952        1.10967       -0.88253
H         19.57792       -1.05644       -0.88253
H         19.57792       -1.05644        0.88253
H         18.31329        1.10789        0.88254
H         18.31329        1.10789       -0.88253
H         17.05196       -1.05835       -0.88253
H         17.05196       -1.05835        0.88253
H         15.78704        1.10580        0.88254
H         15.78704        1.10581       -0.88253
H         14.52607       -1.06065       -0.88253
H         14.52607       -1.06065        0.88252
H         13.26075        1.10327        0.88254
H         13.26075        1.10328       -0.88253
H         12.00020       -1.06343       -0.88253
H         12.00020       -1.06343        0.88252
H         10.73444        1.10023        0.88254
H         10.73444        1.10024       -0.88253
H          9.47433       -1.06673       -0.88253
H          9.47433       -1.06673        0.88253
H          8.20814        1.09668        0.88254
H          8.20814        1.09668       -0.88253
H          6.94844       -1.07051       -0.88253
H          6.94844       -1.07052        0.88253
H          5.68189        1.09268        0.88253
H          5.68189        1.09268       -0.88253
H          4.42251       -1.07471       -0.88253
H          4.42251       -1.07471        0.88253
H          3.15569        1.08833        0.88253
H          3.15569        1.08833       -0.88253
H          1.89651       -1.07918       -0.88253
H          1.89651       -1.07918        0.88253
H          0.62955        1.08377        0.88253
H          0.62955        1.08377       -0.88253
H         -0.62955       -1.08377       -0.88253
H         -0.62955       -1.08377        0.88253
H         -1.89651        1.07918        0.88253
H         -1.89651        1.07918       -0.88253
H         -3.15569       -1.08833       -0.88253
H         -3.15569       -1.08833        0.88253
H         -4.42251        1.07471        0.88253
H         -4.42251        1.07471       -0.88253
H         -5.68189       -1.09268       -0.88253
H         -5.68189       -1.09268        0.88253
H         -6.94844        1.07051        0.88253
H         -6.94844        1.07052       -0.88253
H         -8.20814       -1.09668       -0.88254
H         -8.20814       -1.09668        0.88253
H         -9.47433        1.06673        0.88253
H         -9.47433        1.06673       -0.88253
H        -10.73444       -1.10023       -0.88254
H        -10.73444       -1.10024        0.88253
H        -12.00020        1.06343        0.88253
H        -12.00020        1.06343       -0.88252
H        -13.26075       -1.10327       -0.88254
H        -13.26075       -1.10328        0.88253
H        -14.52607        1.06065        0.88253
H        -14.52607        1.06065       -0.88252
H        -15.78704       -1.10580       -0.88254
H        -15.78704       -1.10581        0.88253
H        -17.05196        1.05835        0.88253
H        -17.05196        1.05835       -0.88253
H        -18.31329       -1.10789       -0.88254
H        -18.31329       -1.10789        0.88253
H        -19.57792        1.05644        0.88253
H        -19.57792        1.05644       -0.88253
H        -20.83952       -1.10966       -0.88254
H        -20.83952       -1.10967        0.88253
H        -22.10410        1.05492        0.88243
H        -22.10410        1.05492       -0.88243
H        -23.37164       -1.10981       -0.88247
H        -23.37164       -1.10981        0.88247
H        -24.66390        1.03336        0.88736
H        -24.66390        1.03337       -0.88736
H        -25.51348       -0.24363       -0.00000
