74
	Energy:      -9.1961870
C         14.52051       -0.36851        0.00000
C         13.25939        0.48065       -0.00000
C         12.00052       -0.38622        0.00000
C         10.73424        0.47174       -0.00000
C          9.47440       -0.39570        0.00000
C          8.20812        0.46230       -0.00000
C          6.94832       -0.40516        0.00000
C          5.68204        0.45282       -0.00000
C          4.42225       -0.41466        0.00000
C          3.15596        0.44330       -0.00000
C          1.89618       -0.42420        0.00000
C          0.62989        0.43375       -0.00000
C         -0.62989       -0.43375        0.00000
C         -1.89618        0.42420       -0.00000
C         -3.15596       -0.44330        0.00000
C         -4.42225        0.41466       -0.00000
C         -5.68204       -0.45282        0.00000
C         -6.94832        0.40516       -0.00000
C         -8.20812       -0.46230        0.00000
C         -9.47440        0.39570       -0.00000
C        -10.73424       -0.47174        0.00000
C        -12.00052        0.38622       -0.00000
C        -13.25939       -0.48065        0.00000
C        -14.52051        0.36851       -0.00000
H         15.40838        0.27149        0.00000
H         14.56279       -1.00815        0.88736
H         14.56279       -1.00815       -0.88736
H         13.26386        1.13099        0.88247
H         13.26386        1.13099       -0.88247
H         12.00305       -1.03767       -0.88243
H         12.00305       -1.03767        0.88243
H         10.73180        1.12300        0.88253
H         10.73180        1.12300       -0.88253
H          9.47682       -1.04695       -0.88253
H          9.47682       -1.04695        0.88253
H          8.20568        1.11355        0.88253
H          8.20568        1.11355       -0.88253
H          6.95076       -1.05641       -0.88253
H          6.95076       -1.05641        0.88253
H          5.67959        1.10407        0.88253
H          5.67959        1.10407       -0.88253
H          4.42470       -1.06591       -0.88253
H          4.42470       -1.06591        0.88253
H          3.15350        1.09455        0.88253
H          3.15350        1.09455       -0.88253
H          1.89865       -1.07545       -0.88253
H          1.89865       -1.07545        0.88253
H          0.62742        1.08501        0.88253
H          0.62742        1.08501       -0.88253
H         -0.62742       -1.08501       -0.88253
H         -0.62742       -1.08501        0.88253
H         -1.89865        1.07545        0.88253
H         -1.89865        1.07545       -0.88253
H         -3.15350       -1.09455       -0.88253
H         -3.15350       -1.09455        0.88253
H         -4.42470        1.06591        0.88253
H         -4.42470        1.06591       -0.88253
H         -5.67959       -1.10407       -0.88253
H         -5.67959       -1.10407        0.88253
H         -6.95076        1.05641        0.88253
H         -6.95076        1.05641       -0.88253
H         -8.20568       -1.11355       -0.88253
H         -8.20568       -1.11355        0.88253
H         -9.47682        1.04695        0.88253
H         -9.47682        1.04695       -0.88253
H        -10.73180       -1.12300       -0.88253
H        -10.73180       -1.12300        0.88253
H        -12.00305        1.03767        0.88243
H        -12.00305        1.03767       -0.88243
H        -13.26386       -1.13099       -0.88247
H        -13.26386       -1.13099        0.88247
H        -14.56279        1.00815       -0.88736
H        -15.40838       -0.27149       -0.00000
H        -14.56279        1.00815        0.88736
