92
	Energy:     -10.4378873
C         18.30894       -0.38072       -0.00000
C         17.04934        0.47069        0.00000
C         15.78893       -0.39394       -0.00000
C         14.52415        0.46623        0.00000
C         13.26282       -0.39904       -0.00000
C         11.99798        0.46108        0.00000
C         10.73678       -0.40435       -0.00000
C          9.47183        0.45558        0.00000
C          8.21078       -0.41007       -0.00000
C          6.94567        0.44964        0.00000
C          5.68477       -0.41624       -0.00000
C          4.41952        0.44325        0.00000
C          3.15875       -0.42281       -0.00000
C          1.89339        0.43653       -0.00000
C          0.63269       -0.42964        0.00000
C         -0.63269        0.42964       -0.00000
C         -1.89339       -0.43653        0.00000
C         -3.15875        0.42281       -0.00000
C         -4.41952       -0.44325        0.00000
C         -5.68477        0.41624       -0.00000
C         -6.94567       -0.44963        0.00000
C         -8.21078        0.41007       -0.00000
C         -9.47183       -0.45558        0.00000
C        -10.73678        0.40436       -0.00000
C        -11.99798       -0.46108        0.00000
C        -13.26282        0.39904       -0.00000
C        -14.52415       -0.46623        0.00000
C        -15.78893        0.39395       -0.00000
C        -17.04934       -0.47069        0.00000
C        -18.30894        0.38072       -0.00000
H         18.35007       -1.02044        0.88736
H         18.35007       -1.02044       -0.88736
H         19.19796        0.25769        0.00000
H         17.05496        1.12101        0.88247
H         17.05496        1.12101       -0.88247
H         15.79032       -1.04540       -0.88243
H         15.79032       -1.04540        0.88243
H         14.52284        1.11749        0.88254
H         14.52284        1.11749       -0.88253
H         13.26415       -1.05030       -0.88253
H         13.26415       -1.05030        0.88253
H         11.99661        1.11233        0.88254
H         11.99661        1.11233       -0.88253
H         10.73820       -1.05561       -0.88253
H         10.73820       -1.05562        0.88253
H          9.47035        1.10682        0.88254
H          9.47035        1.10682       -0.88253
H          8.21231       -1.06133       -0.88253
H          8.21231       -1.06133        0.88253
H          6.94408        1.10088        0.88254
H          6.94408        1.10088       -0.88253
H          5.68641       -1.06750       -0.88253
H          5.68641       -1.06750        0.88253
H          4.41783        1.09450        0.88253
H          4.41783        1.09450       -0.88253
H          3.16048       -1.07407       -0.88253
H          3.16048       -1.07407        0.88253
H          1.89164        1.08778        0.88253
H          1.89164        1.08778       -0.88253
H          0.63447       -1.08089       -0.88253
H          0.63447       -1.08090        0.88253
H         -0.63447        1.08090        0.88253
H         -0.63447        1.08090       -0.88253
H         -1.89164       -1.08778       -0.88253
H         -1.89164       -1.08778        0.88253
H         -3.16048        1.07407        0.88253
H         -3.16048        1.07407       -0.88253
H         -4.41783       -1.09450       -0.88253
H         -4.41783       -1.09450        0.88253
H         -5.68641        1.06750        0.88253
H         -5.68641        1.06750       -0.88253
H         -6.94408       -1.10088       -0.88254
H         -6.94408       -1.10088        0.88253
H         -8.21231        1.06133        0.88253
H         -8.21231        1.06134       -0.88253
H         -9.47035       -1.10682       -0.88253
H         -9.47035       -1.10682        0.88253
H        -10.73820        1.05562        0.88253
H        -10.73820        1.05562       -0.88253
H        -11.99661       -1.11233       -0.88253
H        -11.99661       -1.11233        0.88253
H        -13.26415        1.05030        0.88253
H        -13.26415        1.05030       -0.88253
H        -14.52284       -1.11749       -0.88253
H        -14.52284       -1.11749        0.88253
H        -15.79032        1.04540        0.88243
H        -15.79032        1.04540       -0.88243
H        -17.05496       -1.12101       -0.88247
H        -17.05496       -1.12101        0.88247
H        -18.35007        1.02044        0.88736
H        -18.35007        1.02044       -0.88736
H        -19.19796       -0.25769       -0.00000
