35
	Energy:       6.9558912
C         -0.54466        0.06696        0.02735
H         -0.61232        0.69795       -0.88444
H         -1.44432       -0.58189        0.07816
H         -0.52758        0.72210        0.92434
C          0.70978       -0.80057       -0.01984
H          0.65602       -1.46038       -0.91323
H          0.74059       -1.43629        0.89192
C          1.97603        0.06065       -0.09066
H          1.93669        0.69642       -1.00277
C          3.23409       -0.81456       -0.13792
H          2.02133        0.72054        0.80388
H          3.27309       -1.45034        0.77418
C          4.50104        0.04625       -0.20878
H          3.18844       -1.47446       -1.03241
H          4.46203        0.68203       -1.12086
C          5.75911       -0.82904       -0.25604
H          4.54668        0.70615        0.68570
H          5.71348       -1.48893       -1.15052
H          5.79814       -1.46481        0.65604
C          7.02604        0.03177       -0.32691
H          6.98700        0.66755       -1.23900
C          8.28413       -0.84352       -0.37419
H          7.07167        0.69167        0.56757
H          8.23851       -1.50343       -1.26868
H          8.32319       -1.47931        0.53790
C          9.55105        0.01720       -0.44507
H          9.51233        0.65296       -1.35722
C         10.80844       -0.85850       -0.49231
H          9.59701        0.67709        0.44944
H         10.77099       -1.51841       -1.38646
H         10.85561       -1.49430        0.41868
C         12.07165       -0.00541       -0.56292
H         12.06109        0.62525       -1.47739
H         12.96463       -0.66454       -0.59598
H         12.14588        0.64941        0.33139
